4
step: 10
 O 0.014454 -0.018322 0.004351
 C 1.290355 -0.010042 -0.009839
H 1.913256 0.871999 -0.308642
H 1.913875 -0.901942 0.276419
4
step: 20
 O 0.049663 -0.012257 0.027391
 C 1.204984 -0.062084 -0.023071
H 1.819093 0.775025 -0.411778
H 1.871941 -0.884708 0.393992
