32
Properties=species:S:1:pos:R:3 Energy=-775.248925587026  
C        3.56919139      -1.19437123      -0.00188897
N        2.95208242      -2.36599725      -0.00248152
B        1.50420561      -2.51210036      -0.00249513
C        0.70091929      -1.25231675      -0.00176118
C       -1.50449812       2.42348261       0.00163601
C       -2.90943119       2.41933327       0.00190418
C       -3.60227081       1.23513028       0.00087602
C       -0.76959227       1.24508952       0.00033184
C        2.84024235      -0.00114049      -0.00116752
C        1.37746368      -0.00072434      -0.00100874
B        1.50563817       2.51057781       0.00030566
C        0.70162846       1.25125209      -0.00009382
C        3.56987156       1.19167134      -0.00063374
N        2.95343092       2.36364870       0.00001581
C       -2.90518626       0.00049173      -0.00039069
C       -1.47744960       0.00008769      -0.00060658
C       -1.50587288      -2.42329005      -0.00274243
C       -0.77029732      -1.24531399      -0.00174330
C       -3.60297078      -1.23374992      -0.00142505
H        4.66247254      -1.18047542      -0.00197967
H        3.54313232      -3.19080818      -0.00296897
H        1.11251879      -3.64858555      -0.00308589
H       -0.98138113       3.37874443       0.00246966
H       -3.44705518       3.37047540       0.00294495
H       -4.69467141       1.22344253       0.00104176
H        1.11459275       3.64728479       0.00080752
H        4.66314497       1.17715162      -0.00073726
H        3.54495180       3.18812156       0.00033238
H       -0.98329916      -3.37884872      -0.00365157
H       -4.69536432      -1.22144053      -0.00126634
C       -2.91080278      -2.41834648      -0.00260202
H       -3.44896880      -3.36918212      -0.00342862
