32
Properties=species:S:1:pos:R:3 Energy=-775.293025716657  
N        3.57541000      -1.19212624      -0.00443632
B        2.95305781      -2.45630780      -0.00414577
C        1.43252669      -2.42990576      -0.00302533
C        0.72748599      -1.25701611      -0.00229463
N       -1.54283045       2.45980207      -0.00054707
C       -2.91895235       2.41164936       0.00044151
C       -3.59548299       1.24067236       0.00096068
B       -0.74124036       1.28621219      -0.00113041
C        2.88497949       0.00098938      -0.00383054
C        1.46642862       0.01474582      -0.00276395
C        1.56170176       2.45003321      -0.00274211
C        0.81176487       1.27912216      -0.00223925
C        3.60913558       1.20644399      -0.00429092
C        2.95833556       2.42182531      -0.00375609
C       -2.90454332      -0.02926397       0.00050970
C       -1.48873382      -0.04017586      -0.00058228
C       -1.50092981      -2.44882612      -0.00035154
C       -0.77169264      -1.26051199      -0.00106147
C       -3.60434326      -1.24900017       0.00114378
H        4.58477181      -1.10026224      -0.00515185
H        3.63969204      -3.44697621      -0.00475434
H        0.87903646      -3.36902861      -0.00276013
H       -1.13515423       3.38707872      -0.00080474
H       -3.44175682       3.37053381       0.00079417
H       -4.68626815       1.25593912       0.00174658
H        1.05975416       3.42165989      -0.00235774
H        4.70159578       1.16215210      -0.00509661
H        3.53262742       3.35060534      -0.00413669
H       -0.99846363      -3.41447748      -0.00060708
H       -4.69693530      -1.25034231       0.00197874
C       -2.89983064      -2.43771286       0.00073174
H       -3.43807440      -3.38841652       0.00126410
