32
Properties=species:S:1:pos:R:3 Energy=-768.409758712078  
C        3.56763870      -1.23135477       0.00153942
C        2.88126905      -2.41696664       0.00015438
C        1.47411595      -2.42019044      -0.00045063
C        0.73957609      -1.24753705       0.00029425
C       -1.47436678       2.42106732       0.00087672
C       -2.88152198       2.41783829       0.00006913
C       -3.56788935       1.23222820      -0.00060147
C       -0.73982651       1.24841641       0.00100915
C        2.86635941       0.00073925       0.00226909
C        1.43985385       0.00058902       0.00154136
C        1.47360115       2.42137774       0.00363811
C        0.73931131       1.24857797       0.00209866
C        3.56738204       1.23298841       0.00372663
C        2.88076417       2.41844737       0.00445688
C       -2.86660886       0.00013250      -0.00060810
C       -1.44010245       0.00028463       0.00009839
C       -1.47384598      -2.42050618      -0.00074123
C       -0.73955956      -1.24770062      -0.00012341
C       -3.56762621      -1.23211756      -0.00130430
H        4.65977259      -1.21525986       0.00209163
H        3.41848133      -3.36757194      -0.00047429
H        0.96698030      -3.38410007      -0.00154189
H       -0.96723483       3.38497833       0.00140863
H       -3.41873306       3.36844504       0.00000265
H       -4.66002314       1.21612779      -0.00116620
H        0.96627320       3.38518551       0.00427812
H        4.65951865       1.21711081       0.00428005
H        3.41776306       3.36917328       0.00566633
H       -0.96651243      -3.38431201      -0.00078488
H       -4.65976312      -1.21624843      -0.00179738
C       -2.88100560      -2.41757786      -0.00131836
H       -3.41800756      -3.36830268      -0.00180118
