32
Properties=species:S:1:pos:R:3 Energy=-775.263278773922  
B        3.69414337      -1.29210544       0.00155091
N        2.85378457      -2.44421731       0.00183108
C        1.47123565      -2.44246745       0.00140007
C        0.71425360      -1.31200678       0.00070880
C       -1.44541169       2.41809078      -0.00043371
C       -2.85391176       2.42149162      -0.00069046
C       -3.54448273       1.24354401      -0.00082971
C       -0.72046464       1.24381278      -0.00033968
C        2.97686223       0.06135264       0.00073451
B        1.46103294       0.01684858       0.00040893
C        1.41914146       2.42607639      -0.00087059
N        0.71307307       1.25966934      -0.00027723
C        3.57510691       1.30372572       0.00021787
C        2.78928796       2.48165689      -0.00063768
C       -2.84783943       0.00750699      -0.00059902
C       -1.41820639      -0.01895178      -0.00027404
C       -1.52185915      -2.44783270       0.00008435
C       -0.75404632      -1.29577002       0.00015871
C       -3.57875756      -1.20730383      -0.00064926
H        4.89010912      -1.47003990       0.00195978
H        3.27206548      -3.36615963       0.00235753
H        1.02476361      -3.44172879       0.00165677
H       -0.94763934       3.38401090      -0.00028440
H       -3.38150590       3.37729782      -0.00078684
H       -4.63625847       1.23133102      -0.00106775
H        0.86015035       3.35852163      -0.00163805
H        4.66670636       1.41005917       0.00041094
H        3.25990721       3.46580120      -0.00117297
H       -1.02905670      -3.42098023       0.00037032
H       -4.66970795      -1.16002253      -0.00093184
C       -2.92598630      -2.41148965      -0.00033685
H       -3.49014756      -3.34666973      -0.00038498
