32
Properties=species:S:1:pos:R:3 Energy=-775.248424635706  
C        3.61647858      -1.21050079       0.00216113
B        2.89466415      -2.51423519       0.00257828
N        1.46656887      -2.38713113       0.00195745
C        0.75771401      -1.23412821       0.00106854
C       -1.49602371       2.46433555      -0.00190359
C       -2.92155048       2.37949525      -0.00242989
C       -3.58383125       1.19046923      -0.00200151
C       -0.72064571       1.33082938      -0.00096847
C        2.89505288      -0.01847358       0.00122592
C        1.44399398      -0.00116495       0.00064783
C        1.50024678       2.43740293      -0.00069214
C        0.75488018       1.28510653      -0.00034462
C        3.59156119       1.24045029       0.00080749
C        2.92057538       2.42119196      -0.00011344
N       -2.89865329      -0.00534067      -0.00103009
B       -1.45083348       0.00948806      -0.00049776
C       -1.46071892      -2.45588757       0.00104570
C       -0.70823585      -1.30674305       0.00057808
C       -3.56279695      -1.21205099      -0.00053650
H        4.70643262      -1.12133345       0.00254102
H        3.36107787      -3.62584141       0.00335061
H        0.90316738      -3.22944424       0.00217452
H       -1.05994380       3.46749346      -0.00227227
H       -3.51287504       3.29632070      -0.00320507
H       -4.67420133       1.12933500      -0.00239940
H        0.99588202       3.40440274      -0.00144253
H        4.68335690       1.21657453       0.00125215
H        3.46543571       3.36789197      -0.00042455
H       -1.01958632      -3.45863672       0.00188777
H       -4.65411943      -1.16826431      -0.00098299
C       -2.88686682      -2.39375417       0.00046421
H       -3.46525851      -3.31846931       0.00083217
