32
Properties=species:S:1:pos:R:3 Energy=-775.245218642533  
C        3.60075976      -1.22198129      -0.00404494
B        2.84839030      -2.50842406      -0.00259056
N        1.41781247      -2.36436152      -0.00209600
C        0.73908238      -1.19631205      -0.00286391
C       -1.46069662       2.39936546      -0.00083162
C       -2.87715043       2.46680774       0.00037253
C       -3.61980986       1.32678207       0.00011598
C       -0.74194151       1.22978254      -0.00216228
C        2.90041587      -0.01989619      -0.00444063
C        1.45155331       0.00017603      -0.00369719
C        1.45564388       2.41749429      -0.00492784
C        0.73528036       1.24735482      -0.00372424
C        3.57577981       1.24652195      -0.00564292
C        2.87587349       2.41223171      -0.00594643
B       -2.89940986      -0.00525614      -0.00130167
N       -1.42185645       0.00739894      -0.00214193
C       -1.42581525      -2.39141992      -0.00402395
C       -0.73182233      -1.20687001      -0.00302299
C       -3.59740093      -1.35399677      -0.00208083
H        4.69207424      -1.15680778      -0.00468584
H        3.29007587      -3.62921578      -0.00174070
H        0.85485933      -3.20418154      -0.00079067
H       -0.91192668       3.33706547      -0.00070779
H       -3.33742121       3.45989062       0.00141600
H       -4.71116931       1.39638622       0.00095397
H        0.95556397       3.38328013      -0.00509507
H        4.66751840       1.24680206      -0.00631775
H        3.40282686       3.36892747      -0.00691211
H       -0.87723081      -3.33126943      -0.00535795
H       -4.68774994      -1.43865606      -0.00164912
C       -2.84254459      -2.48414109      -0.00362512
H       -3.28690463      -3.48411776      -0.00452103
