32
Properties=species:S:1:pos:R:3 Energy=-775.275233902347  
C        3.66281044      -1.18434704       0.00288949
B        2.96808715      -2.50717855       0.00346122
N        1.53926782      -2.41004954       0.00260126
C        0.81166160      -1.26322867       0.00139152
C       -1.48294988       2.44979353      -0.00216081
C       -2.88127171       2.44368888      -0.00289896
C       -3.59242940       1.25781675      -0.00258119
C       -0.75735608       1.25780841      -0.00110247
C        2.92350895      -0.00549565       0.00165037
C        1.47222466      -0.02900108       0.00090006
C        1.44979304       2.39758699      -0.00086226
C        0.73283946       1.22837624      -0.00035609
C        3.58619808       1.27065840       0.00106307
C        2.87311835       2.42473385      -0.00015993
C       -2.89715018       0.03645611      -0.00147337
C       -1.48137731       0.04127916      -0.00073376
N       -1.54144201      -2.46197063       0.00082867
B       -0.74184640      -1.28574528       0.00051889
C       -3.59066447      -1.23243403      -0.00105329
H        4.75152792      -1.07750094       0.00339376
H        3.46466171      -3.60564404       0.00451995
H        0.99788400      -3.26730165       0.00290787
H       -0.97844748       3.41479904      -0.00243057
H       -3.41544866       3.39663757      -0.00374636
H       -4.68478363       1.26427817      -0.00317048
H        0.93321133       3.35600804      -0.00185242
H        4.67819348       1.28266037       0.00161958
H        3.38255978       3.39083155      -0.00062293
H       -1.15392348      -3.39789184       0.00161746
H       -4.68148099      -1.24495613      -0.00163424
C       -2.92038858      -2.40616424       0.00004499
H       -3.44673965      -3.36282118       0.00036144
