32
Properties=species:S:1:pos:R:3 Energy=-775.241688882017  
C        3.68773033      -1.17408195       0.00509757
C        3.06364679      -2.37544311       0.00488419
N        1.69511112      -2.48207505       0.00428965
B        0.82990198      -1.35046382       0.00395087
C       -1.43288642       2.36437820       0.00486365
C       -2.84594804       2.43837037       0.00450497
C       -3.55687404       1.28671085       0.00327339
C       -0.75425793       1.17456528       0.00399114
C        2.94108697       0.06217483       0.00474280
C        1.52333901       0.00540067       0.00434226
C        1.43380953       2.41181950       0.00380926
C        0.74781194       1.19196364       0.00404441
C        3.58866762       1.30872245       0.00473046
C        2.82977382       2.46278107       0.00418526
C       -2.89097394       0.02416109       0.00261117
N       -1.49266881      -0.03247812       0.00311812
C       -1.73092349      -2.56451751       0.00186365
B       -0.83752368      -1.36189401       0.00292411
C       -3.66337702      -1.13447411       0.00159351
H        4.77808412      -1.13840082       0.00551899
H        3.63173729      -3.30871157       0.00514434
H        1.32419184      -3.42483974       0.00404683
H       -0.87950896       3.29673645       0.00588315
H       -3.33926780       3.41169815       0.00517834
H       -4.64711231       1.28077697       0.00286831
H        0.90966858       3.36426316       0.00322788
H        4.68008390       1.35919487       0.00504770
H        3.32092760       3.43858026       0.00401199
H       -1.33083596      -3.58366539       0.00160467
H       -4.74610463      -1.00546733       0.00120519
C       -3.10168274      -2.41155107       0.00117993
H       -3.77618223      -3.27467874       0.00037883
