32
Properties=species:S:1:pos:R:3 Energy=-775.286264504087  
N        3.55863755      -1.18591769      -0.00276659
B        2.94972382      -2.45811439      -0.00114553
C        1.43083032      -2.44685941       0.00007385
C        0.72750747      -1.27263403      -0.00047076
C       -1.43168895       2.44984523       0.00201918
B       -2.95058238       2.46109884       0.00341911
N       -3.55949670       1.18890126       0.00309624
C       -0.72836613       1.27562035       0.00058801
C        2.86206582       0.00279304      -0.00291843
C        1.44289245      -0.00371307      -0.00160150
C        1.49363537       2.42259077      -0.00286070
C        0.75796271       1.24023376      -0.00135462
C        3.56967234       1.21369550      -0.00435337
C        2.88741754       2.41152807      -0.00439772
C       -2.86292505       0.00019143       0.00189586
C       -1.44375152       0.00669875       0.00082966
C       -1.49449395      -2.41960537      -0.00028766
C       -0.75882157      -1.23724756       0.00001287
C       -3.57053188      -1.21071191       0.00171862
H        4.56717354      -1.08557592      -0.00379773
H        3.64820651      -3.43996960      -0.00096800
H        0.88058145      -3.38734616       0.00127817
H       -0.88144080       3.39033249       0.00201413
H       -3.64906455       3.44295361       0.00461559
H       -4.56803309       1.08855880       0.00380625
H        0.98519738       3.38387669      -0.00289369
H        4.66228674       1.19107343      -0.00543571
H        3.43759248       3.35452712      -0.00560002
H       -0.98605564      -3.38089112      -0.00124079
H       -4.66314662      -1.18809121       0.00247784
C       -2.88827678      -2.40854361       0.00053479
H       -3.43845169      -3.35154287       0.00026474
