32
Properties=species:S:1:pos:R:3 Energy=-771.855240110789  
C        3.60156251      -1.22688641      -0.00109577
C        2.93533142      -2.40427326      -0.00201857
N        1.56015824      -2.46621385      -0.00119445
B        0.74744087      -1.29920920       0.00065791
C       -1.46218989       2.39704491       0.00450258
C       -2.87051167       2.42121228       0.00518839
C       -3.57677369       1.24889682       0.00505668
C       -0.73559975       1.21966091       0.00366184
C        2.89999622       0.03742824       0.00074814
C        1.48404326       0.03490508       0.00148892
C        1.47573765       2.44583128       0.00439883
C        0.75628524       1.25072732       0.00318463
C        3.58995403       1.26313128       0.00185551
C        2.87473392       2.44558517       0.00372065
C       -2.89134052       0.00775244       0.00408730
C       -1.46469793      -0.02465282       0.00325566
C       -1.56639844      -2.45122350       0.00189538
C       -0.80431289      -1.29822668       0.00198847
C       -3.61998620      -1.21090313       0.00389942
H        4.69249824      -1.23225019      -0.00176711
H        3.46727324      -3.35819224      -0.00346089
H        1.16179860      -3.39753953      -0.00196117
H       -0.94431024       3.35509607       0.00462708
H       -3.38894044       3.38221061       0.00584701
H       -4.66922501       1.25029466       0.00563781
H        0.96809502       3.40933882       0.00598070
H        4.68243155       1.27408330       0.00129219
H        3.40477441       3.40104900       0.00471432
H       -1.07437433      -3.42907721       0.00103447
H       -4.71181684      -1.16322054       0.00457278
C       -2.97510893      -2.42022796       0.00288283
H       -3.54377913      -3.35245721       0.00278939
