32
Properties=species:S:1:pos:R:3 Energy=-775.273573585040  
N        3.56822224      -1.17971049       0.00140361
B        2.96678553      -2.45452568       0.00044048
C        1.44528081      -2.44994620      -0.00067865
C        0.74332889      -1.27510385      -0.00065325
C       -1.45664695       2.40469832      -0.00132823
C       -2.89025542       2.44782362      -0.00237127
C       -3.67651729       1.33322996      -0.00316318
C       -0.71866016       1.24434175      -0.00104268
C        2.86979910       0.01007668       0.00128247
C        1.45218471      -0.00048419       0.00024922
C        1.49403080       2.42720153       0.00091909
C        0.76061886       1.24266830       0.00007085
C        3.57549916       1.22252767       0.00216071
C        2.88807853       2.41838608       0.00197346
B       -2.94788420      -0.00260785      -0.00288330
C       -1.41988357      -0.01545108      -0.00180438
C       -1.49805862      -2.43956609      -0.00219959
C       -0.74264164      -1.23600950      -0.00156863
N       -3.58211286      -1.29241532      -0.00352995
H        4.57661631      -1.07665427       0.00220346
H        3.67043805      -3.43272571       0.00058811
H        0.89243647      -3.38928663      -0.00149660
H       -0.94803802       3.36878646      -0.00072072
H       -3.34291894       3.44559273      -0.00249588
H       -4.76395031       1.46346604      -0.00392269
H        0.98107817       3.38710889       0.00075784
H        4.66814058       1.20360441       0.00296930
H        3.43625456       3.36275001       0.00264468
H       -1.00447988      -3.40794971      -0.00190866
H       -4.59207598      -1.38520911      -0.00426067
C       -2.86909913      -2.43726159      -0.00315125
H       -3.42726483      -3.37659549      -0.00363077
