32
Properties=species:S:1:pos:R:3 Energy=-775.225369212538  
C        3.61758825      -1.22601304      -0.00016865
B        2.85962913      -2.50762675      -0.00004523
N        1.43103797      -2.34647183       0.00066171
C        0.72882457      -1.19352720       0.00126773
C       -1.51323571       2.55691486       0.00131014
C       -2.91727572       2.43425920       0.00192648
C       -3.57353635       1.21784917       0.00272193
B       -0.71850854       1.30908754       0.00149768
C        2.91251464      -0.02772248       0.00023288
C        1.46741493       0.01023953       0.00088853
C        1.50351418       2.36874998       0.00094675
N        0.80930093       1.24321273       0.00112838
C        3.60113268       1.23109906       0.00004085
C        2.91024073       2.40273964       0.00041816
C       -2.86447909      -0.01259904       0.00290838
C       -1.43739721      -0.01170028       0.00220930
C       -1.43945910      -2.44634886       0.00333164
C       -0.73806097      -1.24518797       0.00229535
C       -3.54095360      -1.25792057       0.00381140
H        4.70781860      -1.15506998      -0.00062607
H        3.29290326      -3.63026206      -0.00048000
H        0.85548505      -3.18041375       0.00069394
H       -1.12712786       3.58184495       0.00071511
H       -3.53166550       3.34131305       0.00179289
H       -4.66581473       1.18904287       0.00322311
H        0.91890206       3.28664988       0.00120088
H        4.69282623       1.21968277      -0.00041310
H        3.41332795       3.37007048       0.00029586
H       -0.93903069      -3.41745993       0.00371759
H       -4.63406205      -1.26652765       0.00435669
C       -2.84367792      -2.44587198       0.00407934
H       -3.37911435      -3.39738616       0.00489277
