32
Properties=species:S:1:pos:R:3 Energy=-775.223959938120  
C        3.57906197      -1.29349884      -0.00158858
C        2.76645211      -2.44856133      -0.00299315
C        1.39683574      -2.38340476      -0.00270181
N        0.69127952      -1.20891873      -0.00094781
C       -1.65717128       2.55197164       0.00134077
C       -3.02019285       2.40946611       0.00107454
C       -3.59644534       1.13021842       0.00061730
B       -0.76796451       1.33863041       0.00101887
C        2.98605320      -0.04861607      -0.00006261
B        1.46374525       0.02571119       0.00019638
C        1.58087967       2.46332632       0.00244293
C        0.76775011       1.35791949       0.00141528
C        3.69605127       1.19903587       0.00122146
C        3.01774809       2.38475278       0.00243240
C       -2.84202532      -0.03085071       0.00030721
N       -1.43338472       0.00374633       0.00026127
C       -1.42196314      -2.40640504      -0.00004479
C       -0.73886284      -1.22453628      -0.00025379
C       -3.52763568      -1.28729625       0.00019253
H        4.66877037      -1.41072591      -0.00186965
H        3.22001155      -3.44059926      -0.00446195
H        0.84472719      -3.31720277      -0.00410247
H       -1.23841973       3.56225820       0.00178447
H       -3.68783488       3.27759557       0.00129287
H       -4.68017955       1.01291984       0.00058750
H        1.15045166       3.47234149       0.00328450
H        4.79130582       1.19890843       0.00117035
H        3.58182191       3.32108308       0.00335880
H       -0.89436788      -3.35228888      -0.00003742
H       -4.61718852      -1.26137846       0.00027751
C       -2.84031009      -2.44878035       0.00016350
H       -3.34983942      -3.41344308       0.00024442
