32
Properties=species:S:1:pos:R:3 Energy=-775.312916641764  
C        3.58397130      -1.26040136       0.00194197
C        2.90287018      -2.42025506       0.00208684
N        1.52594947      -2.42826443       0.00203539
B        0.76734946      -1.22653482       0.00182544
C       -1.54408525       2.40678674       0.00179336
C       -2.95616520       2.40185848       0.00182442
C       -3.63888962       1.21335471       0.00176372
C       -0.80151922       1.23993538       0.00172802
C        2.90267128       0.01820783       0.00175627
N        1.50812058       0.02639101       0.00174753
C        1.59232089       2.55453869       0.00144449
B        0.76843241       1.28642984       0.00164022
C        3.61230225       1.19739508       0.00160129
C        2.95904294       2.45205288       0.00142815
C       -2.93343275      -0.01830856       0.00169339
C       -1.50883644      -0.00482296       0.00170653
C       -1.50982451      -2.42493148       0.00157179
C       -0.79127641      -1.24265065       0.00168456
C       -3.61566774      -1.26149201       0.00160274
H        4.67297819      -1.26302746       0.00197181
H        3.40747267      -3.38839530       0.00224499
H        1.07624898      -3.33379105       0.00218308
H       -1.03075398       3.37049828       0.00181830
H       -3.50031912       3.34889765       0.00188546
H       -4.73164546       1.19599949       0.00176701
H        1.15810328       3.55772182       0.00129923
H        4.70158430       1.14415983       0.00161418
H        3.58812992       3.34913573       0.00127999
H       -0.99145347      -3.38850217       0.00150181
H       -4.70868963      -1.26156430       0.00158807
C       -2.91960327      -2.44387128       0.00152503
H       -3.45067051      -3.39795125       0.00143121
