32
Properties=species:S:1:pos:R:3 Energy=-775.192456533772  
B        3.61624968      -1.24859485       0.00055033
C        2.85032642      -2.50134726       0.00139728
C        1.47060805      -2.40134349       0.00056329
C        0.76734555      -1.19714460      -0.00094585
C       -1.55748137       2.43570772       0.00024380
C       -2.96485684       2.40229298      -0.00017519
C       -3.62147495       1.19790839      -0.00168945
C       -0.80387004       1.27447569      -0.00066304
N        2.83108914      -0.00631682      -0.00047728
N        1.45600000       0.00965517      -0.00088085
C        1.57517606       2.54035936      -0.00117066
B        0.74340645       1.30719625      -0.00089301
C        3.53197194       1.16452377      -0.00076350
C        2.95345069       2.41302819      -0.00117739
C       -2.89863031      -0.02271120      -0.00267614
C       -1.47228726       0.01883728      -0.00192578
C       -1.42632380      -2.39371783      -0.00473793
C       -0.71700728      -1.19885482      -0.00258926
C       -3.56418308      -1.27238562      -0.00447427
H        4.80717304      -1.10280660       0.00074313
H        3.29800752      -3.49669355       0.00261729
H        0.88008379      -3.31417041       0.00118991
H       -1.05744346       3.40615145       0.00126410
H       -3.53007288       3.33683890       0.00060082
H       -4.71331447       1.15785062      -0.00219980
H        1.14612647       3.54452112      -0.00135463
H        4.60786507       1.01605312      -0.00048511
H        3.62489596       3.27563353      -0.00138576
H       -0.91302021      -3.35185844      -0.00591624
H       -4.65604254      -1.29559226      -0.00506213
C       -2.83220429      -2.43034221      -0.00562945
H       -3.33352085      -3.40041459      -0.00726434
