32
Properties=species:S:1:pos:R:3 Energy=-775.282034631702  
B        3.63802683      -1.28554068       0.00178014
N        2.83396955      -2.44490741       0.00184423
C        1.46169388      -2.40434899       0.00199933
C        0.74649053      -1.24441922       0.00206503
C       -1.46092062       2.40172357       0.00107684
N       -2.83319573       2.44228037       0.00105912
B       -3.63725331       1.28291277       0.00160794
C       -0.74571556       1.24179448       0.00157294
C        2.87615635       0.03963929       0.00178775
C        1.45433613       0.02848754       0.00184704
C        1.46582371       2.44141770       0.00163160
C        0.73553411       1.25412512       0.00168747
C        3.55876221       1.26797186       0.00167401
C        2.86133363       2.45937332       0.00162668
C       -2.87538141      -0.04226569       0.00213936
C       -1.45356160      -0.03111263       0.00202724
C       -1.46504648      -2.44404296       0.00299237
C       -0.73475839      -1.25675005       0.00237117
C       -3.55798621      -1.27059936       0.00269533
H        4.83829322      -1.39359554       0.00169555
H        3.24352927      -3.37094111       0.00179139
H        0.96998733      -3.37580064       0.00206244
H       -0.96921509       3.37317507       0.00065815
H       -3.24275737       3.36831319       0.00064531
H       -4.83751961       1.39097118       0.00160680
H        0.94881870       3.40085479       0.00159736
H        4.65131041       1.26712176       0.00163452
H        3.38829995       3.41586104       0.00158018
H       -0.94804052      -3.40347982       0.00339216
H       -4.65053432      -1.26974988       0.00277927
C       -2.86055658      -2.46199978       0.00315505
H       -3.38752176      -3.41848713       0.00364837
