32
Properties=species:S:1:pos:R:3 Energy=-775.270242155607  
N        3.58582624      -1.15663609       0.00005342
B        2.98541230      -2.43758407       0.00032467
C        1.47017204      -2.44516065       0.00056439
C        0.75217389      -1.27480340       0.00052922
C       -1.45275699       2.39174452       0.00054048
C       -2.87398546       2.40791538       0.00077073
C       -3.56287953       1.23731679       0.00096491
C       -0.71936206       1.22991985       0.00050021
C        2.87875885       0.02486892       0.00001340
C        1.45958289       0.00078351       0.00025974
C        1.47854846       2.43093371      -0.00006597
C        0.75925894       1.23573980       0.00022663
C        3.57007105       1.24538182      -0.00027215
C        2.87137585       2.43533386      -0.00031391
C       -2.86087495      -0.00956433       0.00095519
C       -1.41323116      -0.04240652       0.00073146
B       -1.53697214      -2.53867053       0.00099588
C       -0.72492302      -1.26614882       0.00074940
C       -3.58085110      -1.19076530       0.00117017
H        4.59314363      -1.04774809      -0.00012827
H        3.70141827      -3.40852269       0.00034447
H        0.90883574      -3.37930263       0.00076611
H       -0.94408557       3.35475931       0.00039037
H       -3.39765502       3.36544602       0.00078519
H       -4.65541743       1.22504210       0.00113517
H        0.96065910       3.38801927      -0.00011135
H        4.66289724       1.23829806      -0.00046378
H        3.41042446       3.38499248      -0.00054492
H       -1.13845295      -3.67140407       0.00105294
H       -4.67344813      -1.17801397       0.00133325
N       -2.96438341      -2.38076531       0.00118697
H       -3.56461102      -3.19834774       0.00135305
