32
Properties=species:S:1:pos:R:3 Energy=-775.279643317508  
C        3.59978908      -1.23386640       0.00120325
N        2.94093437      -2.41985589       0.00045150
B        1.52175282      -2.55689639      -0.00014482
C        0.72983057      -1.25545529       0.00008052
C       -1.57387658       2.46245424       0.00145310
C       -2.98099237       2.43654085       0.00095074
C       -3.63216227       1.22826091      -0.00008798
C       -0.81746980       1.30283434       0.00095696
C        2.90260545      -0.04987792       0.00147628
C        1.46076989      -0.06746033       0.00093926
N        1.54526566       2.45389397       0.00218091
B        0.73237424       1.29332561       0.00139229
C        3.59799445       1.22683965       0.00228646
C        2.93029787       2.39625700       0.00259666
C       -2.91082119       0.00736773      -0.00061626
C       -1.48450023       0.03584104      -0.00005481
C       -1.48179119      -2.38489684      -0.00160276
C       -0.75355874      -1.20636754      -0.00053243
C       -3.59771969      -1.23440830      -0.00169598
H        4.69199568      -1.26121525       0.00157913
H        3.52446726      -3.24881994       0.00033255
H        1.10085796      -3.68489627      -0.00074169
H       -1.07683676       3.43768555       0.00226788
H       -3.54697324       3.37043978       0.00137837
H       -4.72438924       1.18765834      -0.00051809
H        1.14619078       3.38451499       0.00246926
H        4.68915787       1.23848717       0.00264650
H        3.45712063       3.35260094       0.00319192
H       -0.94741312      -3.33377030      -0.00200593
H       -4.69026310      -1.23527711      -0.00212002
C       -2.89076981      -2.40681081      -0.00219594
H       -3.41124090      -3.36691716      -0.00305386
