32
Properties=species:S:1:pos:R:3 Energy=-775.225621492319  
N        3.52289616      -1.17978311       0.00119519
B        2.95401459      -2.44999905       0.00083224
C        1.43261869      -2.46223371       0.00081842
C        0.73442298      -1.29287211       0.00115915
C       -1.44493026       2.40830820       0.00276445
C       -2.85346072       2.41931245       0.00284623
C       -3.55563764       1.24504476       0.00230465
C       -0.71826735       1.22992053       0.00214149
N        2.82506936       0.01177680       0.00154377
C        1.44464054      -0.00739066       0.00157350
C        1.48858234       2.43049696       0.00223902
C        0.75904003       1.21392163       0.00197945
B        3.61685167       1.21561641       0.00185737
C        2.85871063       2.49557135       0.00220184
C       -2.86366179       0.00707288       0.00170200
C       -1.43712467      -0.00604062       0.00164830
C       -1.49308946      -2.42477914       0.00058992
C       -0.74962568      -1.25616522       0.00111544
C       -3.57299083      -1.21772270       0.00116121
H        4.51821066      -0.99280423       0.00123912
H        3.68963228      -3.40105662       0.00055805
H        0.88315750      -3.40255022       0.00052313
H       -0.93710682       3.37045457       0.00322634
H       -3.37758906       3.37721888       0.00334548
H       -4.64763683       1.24071174       0.00234033
H        0.92124395       3.36166931       0.00246109
H        4.81309163       1.05950001       0.00179431
H        3.33079888       3.48053101       0.00241417
H       -0.99434012      -3.39227244       0.00015269
H       -4.66502344      -1.19294328       0.00119563
C       -2.89773404      -2.41094434       0.00060139
H       -3.44341037      -3.35650291       0.00016744
