32
Properties=species:S:1:pos:R:3 Energy=-775.243071638817  
C        3.62639263      -1.16809941       0.00162618
N        3.02824189      -2.36794407       0.00253442
B        1.59769214      -2.54128607       0.00282515
C        0.77705490      -1.27928185       0.00201425
C       -1.45807108       2.40683550      -0.00075314
C       -2.87514012       2.44651492      -0.00066693
C       -3.56484224       1.28205883       0.00041284
C       -0.76998623       1.22307095       0.00025606
C        2.89405616       0.00797515       0.00088179
C        1.44663091      -0.05296770       0.00106255
C        1.43489931       2.37833630      -0.00051737
C        0.71867853       1.20316403       0.00025408
C        3.57159864       1.26582170      -0.00001238
C        2.85516841       2.42064829      -0.00067033
C       -2.87949756       0.02584603       0.00139852
N       -1.47791952       0.00997114       0.00129396
C       -1.62098666      -2.52338218       0.00327651
B       -0.76903674      -1.28304839       0.00221860
C       -3.60854235      -1.15302581       0.00241120
H        4.71904400      -1.14037113       0.00149846
H        3.64389176      -3.17429663       0.00304257
H        1.19668935      -3.67738381       0.00369217
H       -0.91753416       3.34788665      -0.00165449
H       -3.39027603       3.40865730      -0.00146846
H       -4.65486427       1.25783850       0.00053823
H        0.92138054       3.33779883      -0.00104987
H        4.66429984       1.27974784      -0.00012802
H        3.35627670       3.39013260      -0.00132821
H       -1.17779845      -3.52165008       0.00399425
H       -4.69545420      -1.06711280       0.00243952
C       -2.98983941      -2.41237357       0.00334284
H       -3.63139758      -3.30030829       0.00411041
