32
Properties=species:S:1:pos:R:3 Energy=-775.256813764396  
N        3.57248300      -1.32375629      -0.00115290
C        2.84951494      -2.43981296      -0.00001440
C        1.46507162      -2.43901868       0.00096230
C        0.72832449      -1.23757191       0.00079099
C       -1.47166809       2.42006733      -0.00049934
C       -2.87861117       2.42321871       0.00040546
C       -3.56800973       1.23811230       0.00188156
C       -0.74335494       1.24226112       0.00007826
B        2.97543129       0.01921300      -0.00151483
C        1.42742889      -0.01404011      -0.00045605
N        1.42999172       2.35027576      -0.00174714
C        0.72667528       1.21238546      -0.00072394
C        3.72980279       1.29852797      -0.00271248
B        2.89652618       2.51704573      -0.00276949
C       -2.87090109       0.00320727       0.00243575
C       -1.44801106      -0.00204224       0.00148402
C       -1.48307436      -2.42179645       0.00336337
C       -0.74884114      -1.24822822       0.00192347
C       -3.57287043      -1.22850153       0.00390023
H        4.58164992      -1.42882685      -0.00177198
H        3.38899354      -3.39162548       0.00015335
H        0.97144313      -3.40769865       0.00186406
H       -0.96741476       3.38768874      -0.00172808
H       -3.41293776       3.37501135      -0.00008707
H       -4.66013995       1.22742573       0.00262104
H        0.88265156       3.20202765      -0.00177748
H        4.82424269       1.35427643      -0.00347267
H        3.24480692       3.67874267      -0.00355278
H       -0.97399002      -3.38462641       0.00374808
H       -4.66508713      -1.21199442       0.00463859
C       -2.89013713      -2.41747751       0.00437371
H       -3.43054321      -3.36588753       0.00552679
