32
Properties=species:S:1:pos:R:3 Energy=-771.797159289044  
C        3.59136966      -1.21796184       0.00272285
C        2.90213810      -2.40278199       0.00246467
C        1.50837696      -2.36458131       0.00156859
N        0.80790921      -1.23069251       0.00099561
C       -1.46811703       2.44788280      -0.00187797
C       -2.87392109       2.43383159      -0.00280570
C       -3.56274225       1.24302263      -0.00265736
C       -0.75206782       1.25796745      -0.00084487
C        2.88639868       0.00870145       0.00200208
C        1.45881544      -0.00543556       0.00106802
C        1.47764220       2.39806422       0.00041795
C        0.72667029       1.22855108       0.00022242
C        3.58354481       1.23876423       0.00215991
C        2.87998902       2.41464929       0.00137873
C       -2.87143417       0.00504615      -0.00160202
C       -1.44404156       0.01885494      -0.00073761
C       -1.50073255      -2.55778974       0.00067354
B       -0.72118782      -1.30159611       0.00032877
C       -3.56898326      -1.23313629      -0.00134825
H        4.68315591      -1.19952324       0.00344955
H        3.40883378      -3.36780275       0.00294487
H        0.91775429      -3.27862494       0.00131031
H       -0.96647804       3.41540411      -0.00199733
H       -3.41687921       3.38158748      -0.00363555
H       -4.65592230       1.24007761      -0.00335181
H        0.95871384       3.35490483      -0.00021042
H        4.67483785       1.22682470       0.00289064
H        3.40355243       3.37255567       0.00148666
H       -1.10747757      -3.58030893       0.00161493
H       -4.66167745      -1.21250251      -0.00203193
C       -2.90600745      -2.44529559      -0.00022401
H       -3.51484676      -3.35626280      -0.00001927
