32
Properties=species:S:1:pos:R:3 Energy=-775.252138446368  
B        3.61474597      -1.30971768      -0.00431784
N        2.80059382      -2.46016606      -0.00435038
C        1.42877861      -2.40536724      -0.00271189
C        0.72819313      -1.23877952      -0.00092688
C       -1.48877659       2.44680947       0.00501308
C       -2.92390997       2.39796717       0.00666670
C       -3.63481766       1.23096680       0.00644920
C       -0.70231693       1.32195456       0.00313122
C        2.86349533       0.02025450      -0.00225349
C        1.44049480       0.04444482      -0.00057384
C        1.52852639       2.46802873       0.00170686
C        0.76561897       1.30175068       0.00141715
C        3.57881949       1.23170002      -0.00192516
C        2.92264667       2.44672883       0.00004507
C       -2.95468408      -0.03051168       0.00448328
B       -1.43603210      -0.00309898       0.00274597
C       -1.42807835      -2.40831761       0.00032895
N       -0.71011536      -1.25428562       0.00068185
C       -3.57876324      -1.26659468       0.00399485
H        4.81324770      -1.42881721      -0.00582324
H        3.19772330      -3.39142104      -0.00558346
H        0.93381265      -3.37304867      -0.00292139
H       -1.04179599       3.44612750       0.00532803
H       -3.46127808       3.34956358       0.00816612
H       -4.72941485       1.26124239       0.00776992
H        1.01750199       3.43186075       0.00330519
H        4.67067810       1.19500621      -0.00323840
H        3.48279464       3.38417225       0.00033256
H       -0.88828624      -3.35241186      -0.00133453
H       -4.67136794      -1.35213675       0.00516720
C       -2.80479422      -2.44208669       0.00191336
H       -3.28684342      -3.42054963       0.00147216
